# vtk DataFile Version 4.2
vtk output
ASCII
DATASET POLYDATA
POINTS 16002 float
14.5462 50.2292 14.6152 10.0063 22.8309 14.7636 16.4067 47.8558 7.62961 
12.5868 26.8039 8.60024 3.81347 41.4599 13.1004 4.87076 40.5388 8.59438 
13.8164 42.6641 14.55 15.2622 41.5998 10.9384 13.4217 16.4918 11.4193 
14.1543 56.8364 9.61792 18.3013 19.907 14.6306 25.0283 49.1266 15.209 
14.2498 50.0512 14.696 13.9332 49.8611 14.7867 13.596 49.6566 14.8874 
13.2388 49.4354 14.997 12.8625 49.1946 15.1138 12.4687 48.9311 15.2351 
12.06 48.6415 15.3572 11.6392 48.3222 15.4754 11.21 47.9694 15.5847 
10.7762 47.5792 15.6794 10.3422 47.1481 15.7543 9.91279 46.6729 15.8048 
9.49279 46.1512 15.8277 9.08748 45.5821 15.8213 8.70231 44.9657 15.7857 
8.34295 44.3037 15.7231 8.01515 43.5994 15.6369 7.72451 42.8569 15.5315 
7.47616 42.0805 15.4117 7.27444 41.2744 15.2819 7.12242 40.4417 15.1459 
7.02163 39.5841 15.0066 6.97177 38.7017 14.8663 6.97071 37.7934 14.7269 
7.01468 36.8577 14.5904 7.09856 35.8936 14.4594 7.21643 34.9013 14.3374 
7.36215 33.8832 14.2285 7.52984 32.8448 14.1372 7.71433 31.7936 14.0682 
7.91147 30.7399 14.0253 8.11822 29.6952 14.0113 8.33259 28.6714 14.0274 
8.5535 27.6802 14.073 8.78051 26.7317 14.1458 9.01356 25.834 14.2423 
9.25276 24.993 14.3576 9.49811 24.2118 14.4864 9.74943 23.4915 14.6235 
14.2674 50.2593 14.6234 13.9767 50.2922 14.6457 13.674 50.3257 14.6813 
13.3601 50.357 14.7278 13.0358 50.3825 14.782 12.7022 50.3982 14.8396 
12.3605 50.4004 14.8959 12.0118 50.3854 14.9464 11.6569 50.3508 14.9871 
11.2966 50.2949 15.015 10.9314 50.2175 15.029 10.5618 50.1192 15.0292 
10.1886 50.0015 15.0176 9.81275 49.8665 14.9968 9.43596 49.7158 14.9701 
9.06038 49.551 14.9407 8.68869 49.3728 14.9106 8.3238 49.1814 14.8808 
7.96855 48.976 14.8509 7.62542 48.7558 14.8193 7.29625 48.5197 14.7837 
6.98209 48.2668 14.7415 6.68329 47.9964 14.6909 6.3996 47.7084 14.6305 
6.13049 47.4028 14.5602 5.87538 47.0799 14.4806 5.63386 46.7405 14.3933 
5.40588 46.3853 14.3003 5.19168 46.0152 14.2034 4.99175 45.6315 14.1044 
4.80668 45.2356 14.0046 4.63697 44.8292 13.9047 4.48296 44.4145 13.805 
4.34468 43.9936 13.7055 4.22185 43.5689 13.6059 4.1139 43.1425 13.5059 
4.02004 42.7166 13.4053 3.93935 42.2932 13.3041 3.87082 41.8739 13.2024 
14.6412 50.0929 14.663 14.7345 49.9542 14.7141 14.8256 49.8129 14.7678 
14.9143 49.6687 14.8227 15.0005 49.5208 14.8774 15.0844 49.3684 14.9301 
15.1665 49.2099 14.9788 15.2477 49.0439 15.0215 15.3291 48.8687 15.0567 
15.412 48.6827 15.0831 15.4975 48.4848 15.1001 15.5866 48.2745 15.1079 
15.6795 48.0524 15.1075 15.7756 47.8198 15.1005 15.8733 47.5794 15.0891 
15.9699 47.3345 15.0758 16.0619 47.0891 15.0632 16.1451 46.8471 15.0534 
16.215 46.6121 15.0481 16.2675 46.387 15.0482 16.2991 46.1731 15.0537 
16.3073 45.9708 15.064 16.2909 45.7789 15.0776 16.2497 45.5955 15.0927 
16.185 45.4179 15.1071 16.0985 45.2436 15.1188 15.9926 45.07 15.1256 
15.87 44.8954 15.1259 15.733 44.7186 15.1183 15.584 44.5391 15.1022 
15.4251 44.3571 15.077 15.2581 44.173 15.043 15.0845 43.9873 15.0006 
14.9059 43.8006 14.9506 14.7239 43.6133 14.8939 14.54 43.4255 14.8317 
14.3557 43.2371 14.7651 14.1727 43.0477 14.6953 13.9924 42.8569 14.6233 
14.6614 50.4198 14.5383 14.7712 50.6114 14.4578 14.8751 50.8041 14.3734 
14.9731 50.9981 14.285 15.0654 51.1936 14.1924 15.1521 51.3912 14.0956 
15.2338 51.5913 13.9943 15.3107 51.7945 13.8889 15.3834 52.0012 13.7793 
15.4521 52.2118 13.6658 15.5169 52.4263 13.5488 15.5777 52.6447 13.4286 
15.6342 52.8665 13.3055 15.6859 53.091 13.18 15.732 53.3173 13.0524 
15.772 53.5444 12.9229 15.8052 53.7712 12.7919 15.831 53.9966 12.6599 
15.8491 54.2197 12.5271 15.859 54.4398 12.3943 15.8603 54.656 12.2622 
15.8525 54.8679 12.1314 15.8351 55.0747 12.0026 15.8073 55.2756 11.8764 
15.7683 55.4699 11.7528 15.7172 55.6565 11.6316 15.6535 55.8342 11.512 
15.5768 56.0017 11.3928 15.4874 56.1576 11.2725 15.3862 56.3006 11.1493 
15.2743 56.4294 11.0215 15.1538 56.5427 10.8879 15.027 56.6398 10.7474 
14.8963 56.7199 10.5997 14.7643 56.7825 10.4451 14.6333 56.8275 10.2846 
14.5055 56.855 10.1196 14.3823 56.8652 9.95204 14.2651 56.8588 9.78407 
14.8918 50.3192 14.5761 15.2374 50.412 14.5546 15.5831 50.5077 14.5511 
15.9297 50.6057 14.5642 16.2789 50.7035 14.5903 16.6326 50.7969 14.6238 
16.993 50.8804 14.6574 17.3622 50.9471 14.6831 17.7417 50.9899 14.6928 
18.1319 51.0025 14.6801 18.5316 50.9806 14.6417 18.9379 50.9229 14.5782 
19.3462 50.8323 14.4954 19.7504 50.7162 14.4035 20.1438 50.586 14.317 
20.5199 50.4562 14.2523 20.8734 50.3423 14.2255 21.2009 50.259 14.2501 
21.5017 50.2175 14.3342 21.7777 50.2239 14.4789 22.0332 50.2778 14.6784 
22.2738 50.3729 14.9199 22.5057 50.497 15.1858 22.7345 50.6343 15.4561 
22.9641 50.7676 15.7113 23.1964 50.8804 15.9342 23.4307 50.9589 16.1123 
23.6643 50.9934 16.2383 23.8929 50.9789 16.3102 24.1115 50.9152 16.3306 
24.3148 50.8063 16.3054 24.4979 50.6591 16.2425 24.6572 50.4823 16.1503 
24.7899 50.2857 16.037 24.8947 50.0786 15.9096 24.9716 49.8695 15.7737 
25.0215 49.6652 15.6334 25.046 49.4712 15.4915 25.0474 49.291 15.3497 
9.86031 23.0255 14.6711 9.70734 23.2428 14.5762 9.54732 23.4838 14.4795 
9.38032 23.7492 14.3818 9.20659 24.0394 14.2841 9.02652 24.3549 14.1875 
8.84065 24.6959 14.0933 8.64969 25.0622 14.0027 8.45439 25.4533 13.917 
8.25554 25.8685 13.8373 8.05387 26.3065 13.7644 7.85003 26.7657 13.6987 
7.6445 27.2445 13.6403 7.43761 27.7408 13.589 7.22954 28.2523 13.544 
7.02041 28.7769 13.5043 6.81031 29.3124 13.4689 6.59948 29.8564 13.4367 
6.38833 30.4069 13.4071 6.17757 30.962 13.3794 5.96823 31.5198 13.3535 
5.76163 32.079 13.3295 5.55938 32.6382 13.3076 5.36321 33.1968 13.2884 
5.17493 33.7542 13.272 4.99623 34.3101 13.2588 4.82866 34.8645 13.2486 
4.67343 35.4172 13.2412 4.53146 35.968 13.2359 4.4033 36.5161 13.2321 
4.28914 37.0606 13.2288 4.18889 37.5997 13.2252 4.10217 38.1315 13.2203 
4.02842 38.6537 13.2134 3.96692 39.1638 13.2038 3.91685 39.6594 13.1909 
3.87735 40.1384 13.1743 3.84753 40.5989 13.1537 3.82652 41.0397 13.1291 
9.98785 23.0474 14.765 9.96876 23.2843 14.7606 9.94983 23.543 14.7503 
9.93168 23.8251 14.7346 9.91461 24.1322 14.714 9.89848 24.4662 14.6891 
9.88271 24.8287 14.6602 9.86634 25.2212 14.628 9.84822 25.6448 14.5925 
9.82727 26.0998 14.5537 9.8028 26.5862 14.5113 9.77488 27.1027 14.4647 
9.74452 27.6473 14.4134 9.71377 28.2174 14.3575 9.6855 28.8096 14.2975 
9.66302 29.4201 14.2351 9.64948 30.0452 14.1729 9.64725 30.6813 14.1149 
9.65745 31.3253 14.0657 9.6797 31.9746 14.0301 9.71238 32.6271 14.0122 
9.75311 33.2815 14.0148 9.79969 33.9366 14.0384 9.85096 34.5913 14.0814 
9.9076 35.2444 14.1394 9.97256 35.8945 14.2063 10.0509 36.5394 14.275 
10.1493 37.1763 14.3384 10.2751 37.8019 14.3905 10.4351 38.412 14.4274 
10.6344 39.002 14.4476 10.8758 39.5667 14.4523 11.1592 40.1011 14.4451 
11.4815 40.6002 14.4312 11.8369 41.0596 14.4173 12.2177 41.4754 14.4099 
12.6151 41.8449 14.4152 13.0197 42.1663 14.4382 13.4228 42.4392 14.4825 
10.1839 22.3199 14.8459 10.3738 21.8244 14.9233 10.5748 21.3467 14.9927 
10.7849 20.8887 15.0516 11.0015 20.4521 15.098 11.2218 20.0383 15.1307 
11.4427 19.6477 15.1493 11.6613 19.2805 15.1546 11.8754 18.936 15.1479 
12.0835 18.6125 15.1313 12.285 18.3083 15.1068 12.4803 18.0207 15.0762 
12.6703 17.7475 15.0405 12.856 17.4867 15 13.0379 17.2367 14.9537 
13.2159 16.9974 14.8999 13.3885 16.7693 14.8365 13.5533 16.5543 14.7615 
13.7069 16.3545 14.6735 13.8457 16.1726 14.5717 13.9663 16.0109 14.4567 
14.0664 15.871 14.33 14.145 15.7538 14.1936 14.2024 15.6594 14.0497 
14.2403 15.587 13.9004 14.2609 15.5354 13.7473 14.2669 15.5033 13.5911 
14.2606 15.4896 13.4321 14.2437 15.4934 13.2702 14.2171 15.5141 13.1051 
14.1808 15.5514 12.9366 14.1347 15.605 12.765 14.078 15.6744 12.5909 
14.0106 15.7588 12.4155 13.9324 15.8571 12.2403 13.8442 15.9676 12.0668 
13.747 16.0885 11.8966 13.6427 16.2176 11.7313 13.5335 16.3527 11.5719 
10.2607 22.3374 14.9104 10.5275 21.8658 15.064 10.8067 21.4182 15.222 
11.0981 20.9963 15.3823 11.4012 20.6008 15.5428 11.7153 20.2324 15.7016 
12.0391 19.891 15.8574 12.3714 19.5768 16.0091 12.7104 19.2899 16.1563 
13.054 19.031 16.2987 13.4002 18.801 16.4361 13.747 18.6015 16.5682 
14.0921 18.434 16.6938 14.4336 18.3003 16.8115 14.7695 18.2017 16.9185 
15.0979 18.1387 17.0119 15.417 18.1106 17.0878 15.7251 18.1155 17.1429 
16.0203 18.15 17.1742 16.3009 18.2096 17.1797 16.5652 18.2889 17.1589 
16.8118 18.3824 17.1126 17.0393 18.4846 17.0429 17.2469 18.5906 16.953 
17.4342 18.6964 16.8464 17.6013 18.7989 16.7267 17.7484 18.8963 16.5973 
17.8764 18.9877 16.4606 17.9864 19.073 16.3186 18.0793 19.1525 16.1727 
18.1564 19.2273 16.0235 18.2188 19.2986 15.8717 18.2675 19.3676 15.7176 
18.3034 19.4359 15.5616 18.3275 19.5048 15.4045 18.3407 19.5759 15.2469 
18.3437 19.6504 15.0898 18.3375 19.7298 14.9341 18.323 19.815 14.7807 
16.2405 47.6263 7.5779 16.0618 47.3899 7.52954 15.8678 47.1469 7.48474 
15.6554 46.8974 7.44369 15.4215 46.6408 7.40663 15.1628 46.3757 7.37399 
14.8769 46.0996 7.34649 14.5621 45.8086 7.32519 14.2186 45.4975 7.31152 
13.8488 45.1594 7.30709 13.4574 44.7868 7.31354 13.0522 44.3715 7.33217 
12.6428 43.906 7.36364 12.2411 43.3844 7.40762 11.8593 42.8035 7.46257 
11.5094 42.1636 7.52574 11.2014 41.469 7.59334 10.9422 40.7279 7.66093 
10.7355 39.9515 7.72397 10.5806 39.1534 7.77846 10.4737 38.3475 7.82144 
10.4086 37.5468 7.85142 10.3777 36.7621 7.86856 10.3736 36.0011 7.87458 
10.3901 35.268 7.87245 10.4229 34.564 7.86599 10.4701 33.888 7.85936 
10.5313 33.2373 7.85657 10.6079 32.6087 7.86111 10.7019 31.9993 7.87567 
10.8151 31.4069 7.90201 10.9487 30.8303 7.94098 11.103 30.269 7.99254 
11.277 29.7233 8.05598 11.4687 29.1939 8.13004 11.6754 28.6814 8.21311 
11.8939 28.1861 8.30341 12.1206 27.7084 8.39915 12.3526 27.2478 8.4986 
16.1601 47.8676 7.53188 15.9025 47.8732 7.43477 15.6326 47.8722 7.33932 
[...]
POINT_DATA 16002
FIELD FieldData 4
_paraPhi 1 16002 double
6.2831853072 3.1415926536 6.2831853072 3.1415926536 4.7123889804 4.7123889804 1.5707963268 1.5707963268 3.6951670125 
5.7296109483 2.5880182947 0.5535743589 6.2831853072 6.2831853072 6.2831853072 6.2831853072 6.2831853072 6.2831853072 
6.2831853072 6.2831853072 6.2831853072 6.2831853072 6.2831853072 6.2831853072 6.2831853072 6.2831853072 6.2831853072 
6.2831853072 6.2831853072 6.2831853072 6.2831853072 3.1415926536 3.1415926536 3.1415926536 3.1415926536 3.1415926536 
3.1415926536 3.1415926536 3.1415926536 3.1415926536 3.1415926536 3.1415926536 3.1415926536 3.1415926536 3.1415926536 
3.1415926536 3.1415926536 3.1415926536 3.1415926536 3.1415926536 3.1415926536 6.2417210355 6.1982305966 6.1527383463 
6.1053039672 6.0560271438 6.0050510319 5.9525638975 5.898798347 5.8440277294 5.7885595667 5.7327262331 5.6768734901 
5.6213478175 5.5664836808 5.5125918794 5.4599499503 5.4087952733 5.3593211439 5.3116757038 5.2659633393 5.2222479766 
5.1805576534 5.140889775 5.1032165617 5.0674903122 5.0336482335 5.001616693 4.9713148346 4.9426575612 4.9155579264 
4.889928999 4.8656852733 4.8427437015 4.8210244154 4.8004512023 4.7809517865 4.762457963 4.7449056199 4.7282346794 
0.041464271662 0.084954710566 0.13044696087 0.17788134 0.22715816343 0.27813427533 0.33062140969 0.38438696014 0.43915757782 
0.49462574053 0.55045907404 0.60631181711 0.66183748965 0.71670162642 0.77059342779 0.82323535693 0.87439003384 0.92386416333 
0.97150960336 1.0172219679 1.0609373306 1.1026276538 1.1422955321 1.1799687454 1.2156949949 1.2495370736 1.2815686141 
1.3118704726 1.340527746 1.3676273807 1.3932563082 1.4175000338 1.4404416057 1.4621608918 1.4827341049 1.5022335207 
1.5207273442 1.5382796873 1.5549506278 6.2585706734 6.2347220549 6.2116301199 6.1892828907 6.1676661742 6.1467639576 
6.1265587705 6.1070320098 6.0881642299 6.0699353965 6.0523251091 6.035312792 6.0188778567 6.0029998394 5.9876585152 
5.9728339911 5.9585067824 5.9446578719 5.9312687559 5.9183214791 5.9057986579 5.8936834971 5.8819597977 5.8706119594 
5.859624979 5.848984443 5.8386765186 5.8286879411 5.8190060001 5.8096185232 5.8005138593 5.7916808611 5.783108867 
5.7747876824 5.7667075617 5.7588591896 5.7512336634 5.7438224749 5.7366174933 0.024614633787 0.048463252235 0.071555187327 
0.093902416448 0.11551913297 0.13642134956 0.1566265367 0.17615329733 0.19502107731 0.21324991073 0.23086019808 0.2478725152 
0.26430745049 0.28018546774 0.29552679201 0.31035131605 0.32467852474 0.33852743529 0.35191655124 0.36486382811 0.37738664924 
0.38950181004 0.40122550953 0.41257334776 0.42356032821 0.43420086422 0.44450878863 0.45449736604 0.46417930704 0.473566784 
0.48267144792 0.4915044461 0.50007644023 0.5083976248 0.5164777455 0.52432611754 0.53195164374 0.53936283223 0.54656781384 
3.1830569253 3.2265473642 3.2720396145 3.3194739936 3.368750817 3.4197269289 3.4722140633 3.5259796137 3.5807502314 
3.6362183941 3.6920517276 3.7479044707 3.8034301432 3.85829428 3.9121860814 3.9648280105 4.0159826874 4.0654568169 
4.113102257 4.1588146215 4.2025299842 4.2442203074 4.2838881857 4.321561399 4.3572876485 4.3911297272 4.4231612677 
4.4534631262 4.4821203996 4.5092200343 4.5348489618 4.5590926874 4.5820342593 4.6037535454 4.6243267584 4.6438261743 
4.6623199978 4.6798723409 4.6965432814 3.1001283819 3.056637943 3.0111456927 2.9637113136 2.9144344902 2.8634583783 
2.8109712439 2.7572056934 2.7024350758 2.6469669131 2.5911335796 2.5352808365 2.4797551639 2.4248910272 2.3709992258 
2.3183572967 2.2672026197 2.2177284903 2.1700830502 2.1243706857 2.080655323 2.0389649998 1.9992971214 1.9616239082 
1.9258976586 1.8920555799 1.8600240395 1.829722181 1.8010649076 1.7739652728 1.7483363454 1.7240926197 1.7011510479 
1.6794317618 1.6588585487 1.6393591329 1.6208653094 1.6033129663 1.5866420258 3.1662072874 3.1900559058 3.2131478409 
3.23549507 3.2571117866 3.2780140031 3.2982191903 3.3177459509 3.3366137309 3.3548425643 3.3724528517 3.3894651688 
3.4059001041 3.4217781213 3.4371194456 3.4519439696 3.4662711783 3.4801200889 3.4935092048 3.5064564817 3.5189793028 
3.5310944636 3.5428181631 3.5541660013 3.5651529818 3.5757935178 3.5861014422 3.5960900196 3.6057719606 3.6151594376 
3.6242641015 3.6330970997 3.6416690938 3.6499902784 3.6580703991 3.6659187711 3.6735442973 3.6809554858 3.6881604674 
3.1169780198 3.0931294014 3.0700374663 3.0476902371 3.0260735206 3.005171304 2.9849661169 2.9654393563 2.9465715763 
2.9283427429 2.9107324555 2.8937201384 2.8772852031 2.8614071859 2.8460658616 2.8312413375 2.8169141289 2.8030652183 
2.7896761023 2.7767288255 2.7642060044 2.7520908436 2.7403671441 2.7290193058 2.7180323254 2.7073917894 2.697083865 
2.6870952876 2.6774133465 2.6680258696 2.6589212057 2.6500882075 2.6415162134 2.6331950288 2.6251149081 2.617266536 
2.6096410098 2.6022298214 2.5950248397 6.2831853072 6.2831853072 6.2831853072 6.2831853072 6.2831853072 6.2831853072 
6.2831853072 6.2831853072 6.2831853072 6.2831853072 6.2831853072 6.2831853072 6.2831853072 6.2831853072 6.2831853072 
6.2831853072 6.2831853072 6.2831853072 6.2831853072 3.1415926536 3.1415926536 3.1415926536 3.1415926536 3.1415926536 
3.1415926536 3.1415926536 3.1415926536 3.1415926536 3.1415926536 3.1415926536 3.1415926536 3.1415926536 3.1415926536 
3.1415926536 3.1415926536 3.1415926536 3.1415926536 3.1415926536 3.1415926536 6.2417210355 6.1982305966 6.1527383463 
6.1053039672 6.0560271438 6.0050510319 5.9525638975 5.898798347 5.8440277294 5.7885595667 5.7327262331 5.6768734901 
5.6213478175 5.5664836808 5.5125918794 5.4599499503 5.4087952733 5.3593211439 5.3116757038 5.2659633393 5.2222479766 
5.1805576534 5.140889775 5.1032165617 5.0674903122 5.0336482335 5.001616693 4.9713148346 4.9426575612 4.9155579264 
4.889928999 4.8656852733 4.8427437015 4.8210244154 4.8004512023 4.7809517865 4.762457963 4.7449056199 4.7282346794 
0.041464271662 0.084954710566 0.13044696087 0.17788134 0.22715816343 0.27813427533 0.33062140969 0.38438696014 0.43915757782 
0.49462574053 0.55045907404 0.60631181711 0.66183748965 0.71670162642 0.77059342779 0.82323535693 0.87439003384 0.92386416333 
0.97150960336 1.0172219679 1.0609373306 1.1026276538 1.1422955321 1.1799687454 1.2156949949 1.2495370736 1.2815686141 
1.3118704726 1.340527746 1.3676273807 1.3932563082 1.4175000338 1.4404416057 1.4621608918 1.4827341049 1.5022335207 
1.5207273442 1.5382796873 1.5549506278 6.2585706734 6.2347220549 6.2116301199 6.1892828907 6.1676661742 6.1467639576 
6.1265587705 6.1070320098 6.0881642299 6.0699353965 6.0523251091 6.035312792 6.0188778567 6.0029998394 5.9876585152 
5.9728339911 5.9585067824 5.9446578719 5.9312687559 5.9183214791 5.9057986579 5.8936834971 5.8819597977 5.8706119594 
5.859624979 5.848984443 5.8386765186 5.8286879411 5.8190060001 5.8096185232 5.8005138593 5.7916808611 5.783108867 
5.7747876824 5.7667075617 5.7588591896 5.7512336634 5.7438224749 5.7366174933 0.024614633787 0.048463252235 0.071555187327 
0.093902416448 0.11551913297 0.13642134956 0.1566265367 0.17615329733 0.19502107731 0.21324991073 0.23086019808 0.2478725152 
0.26430745049 0.28018546774 0.29552679201 0.31035131605 0.32467852474 0.33852743529 0.35191655124 0.36486382811 0.37738664924 
0.38950181004 0.40122550953 0.41257334776 0.42356032821 0.43420086422 0.44450878863 0.45449736604 0.46417930704 0.473566784 
0.48267144792 0.4915044461 0.50007644023 0.5083976248 0.5164777455 0.52432611754 0.53195164374 0.53936283223 0.54656781384 
3.1830569253 3.2265473642 3.2720396145 3.3194739936 3.368750817 3.4197269289 3.4722140633 3.5259796137 3.5807502314 
3.6362183941 3.6920517276 3.7479044707 3.8034301432 3.85829428 3.9121860814 3.9648280105 4.0159826874 4.0654568169 
4.113102257 4.1588146215 4.2025299842 4.2442203074 4.2838881857 4.321561399 4.3572876485 4.3911297272 4.4231612677 
4.4534631262 4.4821203996 4.5092200343 4.5348489618 4.5590926874 4.5820342593 4.6037535454 4.6243267584 4.6438261743 
4.6623199978 4.6798723409 4.6965432814 3.1001283819 3.056637943 3.0111456927 2.9637113136 2.9144344902 2.8634583783 
2.8109712439 2.7572056934 2.7024350758 2.6469669131 2.5911335796 2.5352808365 2.4797551639 2.4248910272 2.3709992258 
2.3183572967 2.2672026197 2.2177284903 2.1700830502 2.1243706857 2.080655323 2.0389649998 1.9992971214 1.9616239082 
1.9258976586 1.8920555799 1.8600240395 1.829722181 1.8010649076 1.7739652728 1.7483363454 1.7240926197 1.7011510479 
1.6794317618 1.6588585487 1.6393591329 1.6208653094 1.6033129663 1.5866420258 3.1662072874 3.1900559058 3.2131478409 
3.23549507 3.2571117866 3.2780140031 3.2982191903 3.3177459509 3.3366137309 3.3548425643 3.3724528517 3.3894651688 
3.4059001041 3.4217781213 3.4371194456 3.4519439696 3.4662711783 3.4801200889 3.4935092048 3.5064564817 3.5189793028 
3.5310944636 3.5428181631 3.5541660013 3.5651529818 3.5757935178 3.5861014422 3.5960900196 3.6057719606 3.6151594376 
3.6242641015 3.6330970997 3.6416690938 3.6499902784 3.6580703991 3.6659187711 3.6735442973 3.6809554858 3.6881604674 
3.1169780198 3.0931294014 3.0700374663 3.0476902371 3.0260735206 3.005171304 2.9849661169 2.9654393563 2.9465715763 
2.9283427429 2.9107324555 2.8937201384 2.8772852031 2.8614071859 2.8460658616 2.8312413375 2.8169141289 2.8030652183 
2.7896761023 2.7767288255 2.7642060044 2.7520908436 2.7403671441 2.7290193058 2.7180323254 2.7073917894 2.697083865 
2.6870952876 2.6774133465 2.6680258696 2.6589212057 2.6500882075 2.6415162134 2.6331950288 2.6251149081 2.617266536 
2.6096410098 2.6022298214 2.5950248397 4.7123889804 4.7123889804 4.7123889804 4.7123889804 4.7123889804 4.7123889804 
4.7123889804 4.7123889804 4.7123889804 4.7123889804 4.7123889804 4.7123889804 4.7123889804 4.7123889804 4.7123889804 
4.7123889804 4.7123889804 4.7123889804 4.7123889804 4.7123889804 4.7123889804 4.7123889804 4.7123889804 4.7123889804 
4.7123889804 4.7123889804 4.7123889804 4.7123889804 4.7123889804 4.7123889804 4.7123889804 4.7123889804 4.7123889804 
4.7123889804 4.7123889804 4.7123889804 4.7123889804 4.7123889804 4.7123889804 4.6871533084 4.6614595525 4.6353299467 
4.6087898617 4.5818677794 4.5545952172 4.5270065989 4.4991390697 4.4710322577 4.4427279824 4.4142699144 4.3857031936 
4.3570740123 4.3284291732 4.2998156326 4.2712800401 4.242868285 4.2146250625 4.1865934665 4.1588146215 4.131327358 
4.1041679378 4.0773698338 4.0509635631 4.0249765765 3.9994331995 3.9743546231 3.94975894 3.9256612191 3.9020736155 
3.8790055074 3.8564636551 3.8344523766 3.812973734 3.7920277259 3.7716124825 3.7517244582 3.7323586198 3.7135086287 
4.7376246524 4.7633184083 4.7894480141 4.8159880991 4.8429101814 4.8701827435 4.8977713619 4.9256388911 4.9537457031 
4.9820499784 5.0105080464 5.0390747672 5.0677039485 5.0963487876 5.1249623281 5.1534979207 5.1819096757 5.2101528983 
5.2381844943 5.2659633393 5.2934506028 5.3206100229 5.347408127 5.3738143976 5.3998013842 5.4253447613 5.4504233376 
5.4750190208 5.4991167417 5.5227043452 5.5457724533 5.5683143056 5.5903255841 5.6118042268 5.6327502348 5.6531654782 
5.6730535026 5.6924193409 5.7112693321 4.6871533084 4.6614595525 4.6353299467 4.6087898617 4.5818677794 4.5545952172 
4.5270065989 4.4991390697 4.4710322577 4.4427279824 4.4142699144 4.3857031936 4.3570740123 4.3284291732 4.2998156326 
4.2712800401 4.242868285 4.2146250625 4.1865934665 4.1588146215 4.131327358 4.1041679378 4.0773698338 4.0509635631 
4.0249765765 3.9994331995 3.9743546231 3.94975894 3.9256612191 3.9020736155 3.8790055074 3.8564636551 3.8344523766 
3.812973734 3.7920277259 3.7716124825 3.7517244582 3.7323586198 3.7135086287 4.7376246524 4.7633184083 4.7894480141 
4.8159880991 4.8429101814 4.8701827435 4.8977713619 4.9256388911 4.9537457031 4.9820499784 5.0105080464 5.0390747672 
5.0677039485 5.0963487876 5.1249623281 5.1534979207 5.1819096757 5.2101528983 5.2381844943 5.2659633393 5.2934506028 
5.3206100229 5.347408127 5.3738143976 5.3998013842 5.4253447613 5.4504233376 5.4750190208 5.4991167417 5.5227043452 
5.5457724533 5.5683143056 5.5903255841 5.6118042268 5.6327502348 5.6531654782 5.6730535026 5.6924193409 5.7112693321 
1.5707963268 1.5707963268 1.5707963268 1.5707963268 1.5707963268 1.5707963268 1.5707963268 1.5707963268 1.5707963268 
1.5707963268 1.5707963268 1.5707963268 1.5707963268 1.5707963268 1.5707963268 1.5707963268 1.5707963268 1.5707963268 
1.5707963268 1.5707963268 1.5707963268 1.5707963268 1.5707963268 1.5707963268 1.5707963268 1.5707963268 1.5707963268 
1.5707963268 1.5707963268 1.5707963268 1.5707963268 1.5707963268 1.5707963268 1.5707963268 1.5707963268 1.5707963268 
1.5707963268 1.5707963268 1.5707963268 1.5960319988 1.6217257547 1.6478553605 1.6743954455 1.7013175278 1.7285900899 
1.7561787083 1.7840462375 1.8121530495 1.8404573248 1.8689153928 1.8974821136 1.9261112949 1.954756134 1.9833696746 
2.0119052671 2.0403170222 2.0685602447 2.0965918407 2.1243706857 2.1518579492 2.1790173693 2.2058154734 2.232221744 
2.2582087307 2.2837521077 2.308830684 2.3334263672 2.3575240881 2.3811116917 2.4041797997 2.426721652 2.4487329306 
2.4702115732 2.4911575813 2.5115728246 2.531460849 2.5508266873 2.5696766785 1.5455606548 1.5198668989 1.4937372931 
1.4671972081 1.4402751258 1.4130025637 1.3854139453 1.3575464161 1.3294396041 1.3011353288 1.2726772608 1.24411054 
1.2154813587 1.1868365196 1.158222979 1.1296873865 1.1012756314 1.0730324089 1.0450008129 1.0172219679 0.98973470436 
0.96257528426 0.93577718022 0.90937090954 0.88338392293 0.85784054589 0.83276196955 0.80816628637 0.78406856548 0.76048096193 
0.73741285384 0.71487100155 0.69285972304 0.67138108038 0.65043507233 0.63001982895 0.61013180458 0.59076596625 0.5719159751 
1.5960319988 1.6217257547 1.6478553605 1.6743954455 1.7013175278 1.7285900899 1.7561787083 1.7840462375 1.8121530495 
1.8404573248 1.8689153928 1.8974821136 1.9261112949 1.954756134 1.9833696746 2.0119052671 2.0403170222 2.0685602447 
2.0965918407 2.1243706857 2.1518579492 2.1790173693 2.2058154734 2.232221744 2.2582087307 2.2837521077 2.308830684 
2.3334263672 2.3575240881 2.3811116917 2.4041797997 2.426721652 2.4487329306 2.4702115732 2.4911575813 2.5115728246 
2.531460849 2.5508266873 2.5696766785 1.5455606548 1.5198668989 1.4937372931 1.4671972081 1.4402751258 1.4130025637 
1.3854139453 1.3575464161 1.3294396041 1.3011353288 1.2726772608 1.24411054 1.2154813587 1.1868365196 1.158222979 
1.1296873865 1.1012756314 1.0730324089 1.0450008129 1.0172219679 0.98973470436 0.96257528426 0.93577718022 0.90937090954 
0.88338392293 0.85784054589 0.83276196955 0.80816628637 0.78406856548 0.76048096193 0.73741285384 0.71487100155 0.69285972304 
0.67138108038 0.65043507233 0.63001982895 0.61013180458 0.59076596625 0.5719159751 3.6724968698 3.6492068383 3.6252974472 
3.6007720849 3.5756372783 3.5499029593 3.5235827112 3.4966939854 3.4692582774 3.4413012534 3.4128528164 3.3839471039 
3.354622408 3.3249210129 3.2948889465 3.2645756454 3.2340335365 3.203317543 3.1724845225 3.1415926536 3.1107007847 
3.0798677642 3.0491517706 3.0186096618 2.9882963606 2.9582642942 2.9285628992 2.8992382033 2.8703324908 2.8418840538 
2.8139270297 2.7864913217 2.759602596 2.7332823479 2.7075480288 2.6824132222 2.65788786 2.6339784689 2.6106884374 
5.7522810909 5.7755711225 5.7994805136 5.8240058758 5.8491406824 5.8748750015 5.9011952495 5.9280839753 5.9555196833 
5.9834767074 6.0119251444 6.0408308569 6.0701555528 6.0998569478 6.1298890142 6.1602023154 6.1907444242 6.2214604178 
6.2522934383 6.2831853072 0.030891868904 0.061724889398 0.092440882943 0.12298299178 0.15329629295 0.18332835934 0.21302975441 
0.2423544503 0.27126016277 0.29970859977 0.32766562385 0.35510133185 0.38199005764 0.4083103057 0.43404462475 0.45917943135 
0.48370479357 0.50761418468 0.53090421624 6.2394825033 6.1935354793 6.236988656 6.1453757602 6.1882926905 6.2341932092 
6.0950788799 6.1371386188 6.182400815 6.2310379827 6.0427702461 6.0836231432 6.1278626059 6.1757318549 6.2274488197 
5.98862923 6.027905865 6.0707039899 6.1173399067 6.1681219512 6.2233297064 5.9328905937 5.9702140275 6.0111307001 
6.0560271438 6.1053039672 6.1593579506 6.2185540906 5.875842469 5.9108433188 5.9494341193 5.992062561 6.0392155513 
6.0914074558 6.1491574846 6.2129517134 5.8178203923 5.8501536778 5.8859906711 5.9258247323 5.9702140275 6.0197789024 
6.0751896742 6.1371386188 6.2062879986 5.7591973597 5.7885595667 5.8212538783 5.8577982965 5.898798347 5.9449554167 
5.997069117 6.0560271438 6.1227721571 6.1982305966 5.7003704379 5.7265149532 5.755738643 5.7885595667 5.825599842 
5.8676048813 5.9154620754 5.9702140275 6.0330565753 6.1053039672 6.1882926905 5.6417450284 5.6644941364 5.6899986169 
5.7187512453 5.7513567147 5.7885595667 5.8312775173 5.8806385868 5.9380165469 6.0050510319 6.0836231432 6.1757318549 
5.5837182945 5.6029703303 5.6245988978 5.6490484398 5.6768734901 5.7087713893 5.7456252663 5.7885595667 5.8390091454 
5.898798347 5.9702140275 6.0560271438 6.1593579506 5.5266634161 5.5423943694 5.5600873004 5.5801201957 5.6029703303 
5.6292471493 5.6597379555 5.6954717127 5.7378080323 5.7885595667 5.8501536778 5.9258247323 6.0197789024 6.1371386188 
5.4709161828 5.4831758731 5.4969677718 5.5125918794 5.5304298714 5.5509739744 5.5748684672 5.6029703303 5.6364393081 
5.6768734901 5.7265149532 5.7885595667 5.8676048813 5.9702140275 6.1053039672 5.4167650267 5.4256687199 5.43567904 
5.4470135293 5.4599499503 5.4748483179 5.4921831632 5.5125918794 5.5369490232 5.5664836808 5.6029703303 5.6490484398 
5.7087713893 5.7885595667 5.898798347 6.0560271438 5.3644450335 5.3701618743 5.3765804663 5.3838378286 5.3921089286 
5.4016207073 5.4126727703 5.4256687199 5.4411650335 5.4599499503 5.4831758731 5.5125918794 5.5509739744 5.6029703303 
5.6768734901 5.7885595667 5.9702140275 5.3141358993 5.3168757261 5.3199456831 5.3234091933 5.327347015 5.3318635906 
5.3370963992 5.3432301124 5.3505186917 5.3593211439 5.3701618743 5.3838378286 5.4016207073 5.4256687199 5.4599499503 
5.5125918794 5.6029703303 5.7885595667 5.2659633393 5.2659633393 5.2659633393 5.2659633393 5.2659633393 5.2659633393 
5.2659633393 5.2659633393 5.2659633393 5.2659633393 5.2659633393 5.2659633393 5.2659633393 5.2659633393 5.2659633393 
5.2659633393 5.2659633393 5.2659633393 5.2659633393 5.2200031651 5.2175155193 5.2147434193 5.2116351681 5.208125748 
5.2041322415 5.1995472255 5.1942290132 5.1879868393 5.1805576534 5.1715684117 5.1604721179 5.1464336051 5.1281124021 
5.1032165617 5.0674903122 5.0120975802 4.9155579264 4.7123889804 4.1588146215 5.1762871412 5.1715684117 5.1663272396 
5.1604721179 5.1538889409 5.1464336051 5.1379215178 5.1281124021 5.1166877633 5.1032165617 5.0871012975 5.0674903122 
5.0431292661 5.0120975802 4.9713148346 4.9155579264 4.8353719722 4.7123889804 4.5092200343 4.1588146215 3.6362183941 
5.1348097781 5.1281124021 5.1206992861 5.1124501807 5.1032165617 5.0928128941 5.0810044879 5.0674903122 5.0518781926 
5.0336482335 5.0120975802 4.9862548035 4.9547434307 4.9155579264 4.8656852733 4.8004512023 4.7123889804 4.5894059886 
4.4126803806 4.1588146215 3.8218076305 3.4545639333 5.0955353578 5.0871012975 5.0777993904 5.0674903122 5.0560037176 
5.0431292661 5.0286044156 5.0120975802 4.9931845363 4.9713148346 4.9457631862 4.9155579264 4.8793741224 4.8353719722 
4.7809517865 4.7123889804 4.6243267584 4.5092200343 4.3572876485 4.1588146215 3.9121860814 3.6362183941 3.368750817 
5.0584046713 5.0484610525 5.0375341797 5.0254736706 5.0120975802 4.9971839084 4.9804593139 4.961583954 4.940130904 
4.9155579264 4.88716839 4.8540567911 4.8150326445 4.7685148797 4.7123889804 4.6438261743 4.5590926874 4.4534631262 
4.321561399 4.1588146215 3.9648280105 3.7479044707 3.5259796137 3.3194739936 5.0233411291 5.0120975802 4.9997871668 
4.9862548035 4.9713148346 4.9547434307 4.9362687246 4.9155579264 4.8922003919 4.8656852733 4.8353719722 4.8004512023 
4.7598942882 4.7123889804 4.656263081 4.5894059886 4.5092200343 4.4126803806 4.2966655586 4.1588146215 3.9991092409 